                               Psi4 1.1rc3.dev5

  ==> Input File <==

--------------------------------------------------------------------------
#! Check flavors of B3LYP (b3lyp3/b3lyp5) against other programs

# all non-psi4 references from http://forum.psicode.org/t/b3lyp-defect-compatibility-with-gamess-and-gaussian/193
# also see discussion in https://github.com/psi4/psi4/pull/339

# @loriab conditions  #TEST

set scf_type pk
set e_convergence 9
set dft_spherical_points 590
set dft_radial_points 99
set print 2

set basis aug-cc-pvdz

molecule cswater {
0 1
O  -1.551007  -0.114520   0.000000
H  -1.934259   0.762503   0.000000
H  -0.599677   0.040712   0.000000
}

oswater = cswater.clone()
oswater.set_multiplicity(2)
oswater.set_molecular_charge(1)

e = energy('b3lyp', molecule=cswater)
compare_values(-76.444577160243, e, 5, 'clsd-shell: b3lyp (vwn3rpa) vs NWChem (vwn_1_rpa; default)')  #TEST

set reference uhf
e = energy('b3lyp', molecule=oswater)
compare_values(-75.974154693676, e, 5, 'open-shell: b3lyp (vwn3rpa) vs NWChem (vwn_1_rpa; default)')  #TEST
compare_values(-75.97415476252, e, 5, 'open-shell: b3lyp (vwn3rpa) vs Turbomole (vwn3)')  #TEST
compare_values(-75.9741544303, e, 5, 'open-shell: b3lyp (vwn3rpa) vs Gaussian (default)')  #TEST

set reference rks
e = energy('b3lyp5', molecule=cswater)
compare_values(-76.407526614389, e, 5, 'clsd-shell: b3lyp5 (vwn5) vs NWChem (vwn_3)')  #TEST

set reference uks
e = energy('b3lyp5', molecule=oswater)
compare_values(-75.940741067166, e, 4, 'open-shell: b3lyp5 (vwn5) vs NWChem (vwn_3)')  #TEST
compare_values(-75.94075271487, e, 5, 'open-shell: b3lyp5 (vwn5) vs Turbomole (vwn5; default)')  #TEST
# this one doesn't match quite so well

# @jamont conditions  #TEST

molecule {
0 1
O
H 1 rOH
H 1 rOH 2 aHOH

rOH = 0.9622
aHOH = 103.84
}

set basis 6-311g(d)

e = energy('b3lyp')
compare_values(-76.4338100903, e, 7, 'clsd-shell: b3lyp (vwn3rpa) vs Gaussian (default)')  #TEST
compare_values(-76.4338100577, e, 7, 'clsd-shell: b3lyp (vwn3rpa) vs Gamess (b3lypv1r)')  #TEST

# all the below pass just fine but redundant for test-case purposes

### clean()
###
### # @drhaney conditions  #TEST
###
### set basis 6-31G(2df,p)
###
### e = energy('b3lyp')
### compare_values(-76.4293315991, e, 5, 'b3lyp3 vs Gamess')  #TEST
### # GAMESS-VWNrpa_1  -76.4293 3159 91  #TEST
### # Psi4-VWNrpa_3    -76.4293 5426 98  #TEST
### # Gaussian-09      -76.4256 2566 74  #TEST
### # LAB psi4         -76.4293 4111 93  # large grid  VWN3RPA_C  VWN5RPA_C  #TEST
###
### e = energy('b3lyp5')
### compare_values(-76.39221287, e, 5, 'b3lyp5 vs NWChem')  #TEST
### # GAMESS-VWN_5     -76.3922 0295 70  #TEST
### # Nchem-VWN_3      -76.3922 1287   #TEST
### # Psi4-VWN_3       -76.3922 2551 29  #TEST
### # LAB psi4         -76.3922 1237 09  # large grid  VWN3_C     VWN5_C  #TEST
###
### clean()
###
### # @hokru conditions  #TEST
###
### molecule {
### O -1.769142 -0.076181 0.000000
### H -2.065745 0.837492 0.000000
### H -0.809034 0.001317 0.000000
### }
###
### set basis def2-tzvp
###
### e = energy('b3lyp')
### compare_values(-76.46290368244, e, 5, 'b3lyp3 vs Turbomole')  #TEST
### #For VWN3 (same as Gaussian) I get  #TEST
### #-76.46290368244 (Turbomole "B3LYP_Gaussian")  #TEST
### #-76.46290355576 (psi4 energy('b3lyp'))  #TEST
### #-76.46290344335 (nwchem default vnw-1-rpa)  #TEST
### #VNW-1-rpa in nwchem seems to be VWN3 in Turbomole/Gaussian  #TEST
###   #TEST
### e = energy('b3lyp5')
### compare_values(-76.42582290565, e, 5, 'b3lyp5 vs Turbomole')  #TEST
### #and VWN5  #TEST
### #-76.42582290565 (Turbomole default )  #TEST
### #-76.42582303608 (psi4 energy('b3lyp5') with VWN5_C not VWN5RPA_C , needs to be changed!)  #TEST
### #-76.42582292329 (nwchem VWN_5)  #TEST

--------------------------------------------------------------------------

    Molecular point group: cs
  Charge       = 0
  Multiplicity = 1
   => B3LYP Composite Functional <=
  @RKS Final Energy:   -76.44457709703127
    Total Energy =                        -76.4445770970312708
    Molecular point group: cs
   => B3LYP Composite Functional <=
  @UKS Final Energy:   -75.97415475970078
    Total Energy =                        -75.9741547597007667
   => B3LYP5 Composite Functional <=
  @RKS Final Energy:   -76.40752655231745
    Total Energy =                        -76.4075265523174494
  Multiplicity = 2
   => B3LYP5 Composite Functional <=
  @UKS Final Energy:   -75.94075271030627
    Total Energy =                        -75.9407527103062705
    Molecular point group: c2v

    Geometry (in Angstrom), charge = 0, multiplicity = 1:

       Center              X                  Y                   Z               Mass
    ------------   -----------------  -----------------  -----------------  -----------------
           O          0.000000000000     0.000000000000    -0.066415610051    15.994914619560
           H          0.000000000000    -0.757396076552     0.527031964064     1.007825032070
           H          0.000000000000     0.757396076552     0.527031964064     1.007825032070

  Charge       = 0
  Multiplicity = 1
   => B3LYP Composite Functional <=

    Orbital Energies (a.u.)
    -----------------------

    Alpha Occupied:

       1A1   -19.104060     2A1    -1.008752     1B2    -0.527586
       3A1    -0.375749     1B1    -0.298609

    Alpha Virtual:

       4A1     0.024684     2B2     0.101544     3B2     0.374154
       5A1     0.417752     2B1     0.763013     6A1     0.778294
       4B2     0.891615     7A1     1.165856     5B2     1.993056
       8A1     2.052673     9A1     2.761040     1A2     2.778979
       3B1     2.805842    10A1     3.168052     6B2     3.489776
       4B1     4.750408    11A1     4.862652     7B2     4.992227
      12A1    49.733608

    Beta Occupied:

       1A1   -19.104060     2A1    -1.008752     1B2    -0.527586
       3A1    -0.375749     1B1    -0.298609

    Beta Virtual:

       4A1     0.024684     2B2     0.101544     3B2     0.374154
       5A1     0.417752     2B1     0.763013     6A1     0.778294
       4B2     0.891615     7A1     1.165856     5B2     1.993056
       8A1     2.052673     9A1     2.761040     1A2     2.778979
       3B1     2.805842    10A1     3.168052     6B2     3.489776
       4B1     4.750408    11A1     4.862652     7B2     4.992227
      12A1    49.733608

    Final Occupation by Irrep:
             A1    A2    B1    B2
    DOCC [     3,    0,    1,    1 ]
    SOCC [     0,    0,    0,    0 ]

  Energy converged.

  @UKS Final Energy:   -76.43381004075653

   => Energetics <=

    Nuclear Repulsion Energy =              9.1487945398059889
    One-Electron Energy =                -123.0981207060023195
    Two-Electron Energy =                  45.0886061676384671
    DFT Exchange-Correlation Energy =      -7.5730900421986505
    Empirical Dispersion Energy =           0.0000000000000000
    PCM Polarization Energy =               0.0000000000000000
    EFP Energy =                            0.0000000000000000
    Total Energy =                        -76.4338100407565122

  UHF NO Occupations:
  HONO-2 :    3 A1 2.0000000
  HONO-1 :    1 B2 2.0000000
  HONO-0 :    1 B1 2.0000000
  LUNO+0 :    2 B1 0.0000000
  LUNO+1 :    4 A1 0.0000000
  LUNO+2 :    2 B2 0.0000000
  LUNO+3 :    5 A1 0.0000000

Properties will be evaluated at   0.000000,   0.000000,   0.000000 Bohr

Properties computed using the SCF density matrix

  Nuclear Dipole Moment: (a.u.)
     X:     0.0000      Y:     0.0000      Z:     0.9878

  Electronic Dipole Moment: (a.u.)
     X:     0.0000      Y:     0.0000      Z:    -0.0846

  Dipole Moment: (a.u.)
     X:     0.0000      Y:     0.0000      Z:     0.9032     Total:     0.9032

  Dipole Moment: (Debye)
     X:     0.0000      Y:     0.0000      Z:     2.2958     Total:     2.2958

*** tstop() called on psinet at Mon May 15 15:36:50 2017
Module time:
	user time   =       7.49 seconds =       0.12 minutes
	system time =       0.02 seconds =       0.00 minutes
	total time  =          8 seconds =       0.13 minutes
Total time:
	user time   =      43.67 seconds =       0.73 minutes
	system time =       0.20 seconds =       0.00 minutes
	total time  =         44 seconds =       0.73 minutes
	clsd-shell: b3lyp (vwn3rpa) vs Gaussian (default).................PASSED
	clsd-shell: b3lyp (vwn3rpa) vs Gamess (b3lypv1r)..................PASSED

*** Psi4 exiting successfully. Buy a developer a beer!
